<?xml version="1.0" encoding="UTF-8"?>

<!-- generated on 2026-01-09T16:11:57.382725+01:00 by Eclipse SUMO sumo 1.25.0
<sumoConfiguration xmlns:xsi="http://www.w3.org/2001/XMLSchema-instance" xsi:noNamespaceSchemaLocation="http://sumo.dlr.de/xsd/sumoConfiguration.xsd">

    <input>
        <net-file value="Test_dublin_map/osm.net.xml.gz"/>
        <route-files value="Test_dublin_map/osm.passenger.trips.xml"/>
        <additional-files value="Test_dublin_map/osm.poly.xml.gz,Test_dublin_map/output.add.xml,Test_dublin_map/rsus.add.xml"/>
    </input>

    <output>
        <tripinfo-output value="Test_dublin_map/tripinfos.xml"/>
        <statistic-output value="Test_dublin_map/stats.xml"/>
    </output>

    <processing>
        <ignore-route-errors value="true"/>
        <tls.actuated.jam-threshold value="30"/>
    </processing>

    <routing>
        <device.rerouting.adaptation-steps value="18"/>
        <device.rerouting.adaptation-interval value="10"/>
    </routing>

    <report>
        <verbose value="true"/>
        <duration-log.statistics value="true"/>
        <no-step-log value="true"/>
    </report>

    <traci_server>
        <remote-port value="50152"/>
    </traci_server>

    <random_number>
        <seed value="42"/>
    </random_number>

    <gui_only>
        <gui-settings-file value="Test_dublin_map/osm.view.xml"/>
    </gui_only>

</sumoConfiguration>
-->

<meandata xmlns:xsi="http://www.w3.org/2001/XMLSchema-instance" xsi:noNamespaceSchemaLocation="http://sumo.dlr.de/xsd/meandata_file.xsd">
    <interval begin="0.00" end="414.00" id="wizard_example">
        <edge id="-1049698333#1" sampledSeconds="0.00" departed="0" arrived="0" entered="0" left="0" laneChangedFrom="0" laneChangedTo="0"/>
        <edge id="-1049698333#3" sampledSeconds="0.00" departed="0" arrived="0" entered="0" left="0" laneChangedFrom="0" laneChangedTo="0"/>
        <edge id="-1061460108#1" sampledSeconds="0.00" departed="0" arrived="0" entered="0" left="0" laneChangedFrom="0" laneChangedTo="0"/>
        <edge id="-1084557094#0" sampledSeconds="9.96" traveltime="9.64" overlapTraveltime="11.80" density="1.05" overlapDensity="1.09" laneDensity="1.05" occupancy="0.49" waitingTime="0.00" timeLoss="1.97" speed="2.30" speedRelative="0.83" departed="0" arrived="1" entered="1" left="0" laneChangedFrom="0" laneChangedTo="0" flow="8.71"/>
        <edge id="-1084557094#1" sampledSeconds="0.00" departed="0" arrived="0" entered="0" left="0" laneChangedFrom="0" laneChangedTo="0"/>
        <edge id="-1084557094#2" sampledSeconds="0.00" departed="0" arrived="0" entered="0" left="0" laneChangedFrom="0" laneChangedTo="0"/>
        <edge id="-1090523815" sampledSeconds="6.54" traveltime="2.91" overlapTraveltime="3.27" density="0.44" overlapDensity="0.49" laneDensity="0.44" occupancy="0.21" waitingTime="0.00" timeLoss="1.76" speed="11.33" speedRelative="0.82" departed="0" arrived="0" entered="2" left="2" laneChangedFrom="0" laneChangedTo="0" flow="17.87"/>
        <edge id="-1103189119" sampledSeconds="0.00" departed="0" arrived="0" entered="0" left="0" laneChangedFrom="0" laneChangedTo="0"/>
        <edge id="-111286353#2" sampledSeconds="0.00" departed="0" arrived="0" entered="0" left="0" laneChangedFrom="0" laneChangedTo="0"/>
        <edge id="-111286353#6" sampledSeconds="0.00" departed="0" arrived="0" entered="0" left="0" laneChangedFrom="0" laneChangedTo="0"/>
        <edge id="-112410779#0" sampledSeconds="0.00" departed="0" arrived="0" entered="0" left="0" laneChangedFrom="0" laneChangedTo="0"/>
        <edge id="-112410779#1" sampledSeconds="0.00" departed="0" arrived="0" entered="0" left="0" laneChangedFrom="0" laneChangedTo="0"/>
        <edge id="-1132284993" sampledSeconds="0.00" departed="0" arrived="0" entered="0" left="0" laneChangedFrom="0" laneChangedTo="0"/>
        <edge id="-114208221#1" sampledSeconds="0.00" departed="0" arrived="0" entered="0" left="0" laneChangedFrom="0" laneChangedTo="0"/>
        <edge id="-114208222#0" sampledSeconds="4.76" traveltime="4.67" overlapTraveltime="5.38" density="0.35" overlapDensity="0.35" laneDensity="0.35" occupancy="0.16" waitingTime="0.00" timeLoss="0.54" speed="7.00" speedRelative="0.84" departed="0" arrived="1" entered="1" left="0" laneChangedFrom="0" laneChangedTo="0" flow="8.70"/>
        <edge id="-114208222#2" sampledSeconds="23.24" traveltime="10.86" overlapTraveltime="12.01" density="0.68" overlapDensity="0.75" laneDensity="0.68" occupancy="0.35" waitingTime="0.00" timeLoss="3.94" speed="6.64" speedRelative="0.80" departed="1" arrived="0" entered="1" left="2" laneChangedFrom="0" laneChangedTo="0" flow="16.22"/>
        <edge id="-114208262#1" sampledSeconds="0.00" departed="0" arrived="0" entered="0" left="0" laneChangedFrom="0" laneChangedTo="0"/>
        <edge id="-114277935#1" sampledSeconds="0.00" departed="0" arrived="0" entered="0" left="0" laneChangedFrom="0" laneChangedTo="0"/>
        <edge id="-121166756#0" sampledSeconds="19.08" traveltime="17.50" overlapTraveltime="19.08" density="0.53" overlapDensity="0.58" laneDensity="0.53" occupancy="0.27" waitingTime="4.00" timeLoss="9.50" speed="4.44" speedRelative="0.53" departed="0" arrived="0" entered="1" left="1" laneChangedFrom="0" laneChangedTo="0" flow="8.48"/>
        <edge id="-1211959043" sampledSeconds="0.00" departed="0" arrived="0" entered="0" left="0" laneChangedFrom="0" laneChangedTo="0"/>
        <edge id="-1253739956" sampledSeconds="0.00" departed="0" arrived="0" entered="0" left="0" laneChangedFrom="0" laneChangedTo="0"/>
        <edge id="-128396774" sampledSeconds="0.00" departed="0" arrived="0" entered="0" left="0" laneChangedFrom="0" laneChangedTo="0"/>
        <edge id="-128676689#1" sampledSeconds="0.00" departed="0" arrived="0" entered="0" left="0" laneChangedFrom="0" laneChangedTo="0"/>
        <edge id="-1297450911" sampledSeconds="0.00" departed="0" arrived="0" entered="0" left="0" laneChangedFrom="0" laneChangedTo="0"/>
        <edge id="-1323556065" sampledSeconds="55.74" traveltime="12.46" overlapTraveltime="13.94" density="2.97" overlapDensity="3.32" laneDensity="2.97" occupancy="1.56" waitingTime="28.00" timeLoss="42.75" speed="3.27" speedRelative="0.24" departed="0" arrived="0" entered="4" left="4" laneChangedFrom="0" laneChangedTo="0" flow="34.95"/>
        <edge id="-132759854#1" sampledSeconds="0.00" departed="0" arrived="0" entered="0" left="0" laneChangedFrom="0" laneChangedTo="0"/>
        <edge id="-132759854#3" sampledSeconds="0.00" departed="0" arrived="0" entered="0" left="0" laneChangedFrom="0" laneChangedTo="0"/>
        <edge id="-1340422151" sampledSeconds="0.00" departed="0" arrived="0" entered="0" left="0" laneChangedFrom="0" laneChangedTo="0"/>
        <edge id="-1340565757" sampledSeconds="0.00" departed="0" arrived="0" entered="0" left="0" laneChangedFrom="0" laneChangedTo="0"/>
        <edge id="-1342766839#1" sampledSeconds="20.16" traveltime="18.64" overlapTraveltime="20.16" density="0.20" overlapDensity="0.21" laneDensity="0.20" occupancy="0.10" waitingTime="0.00" timeLoss="4.04" speed="11.52" speedRelative="0.83" departed="0" arrived="0" entered="1" left="1" laneChangedFrom="0" laneChangedTo="0" flow="8.21"/>
        <edge id="-1342766841#0" sampledSeconds="8.44" traveltime="3.74" overlapTraveltime="4.22" density="0.37" overlapDensity="0.41" laneDensity="0.37" occupancy="0.19" waitingTime="0.00" timeLoss="0.77" speed="12.89" speedRelative="0.93" departed="0" arrived="0" entered="2" left="2" laneChangedFrom="0" laneChangedTo="0" flow="16.97"/>
        <edge id="-135583238#1" sampledSeconds="0.00" departed="0" arrived="0" entered="0" left="0" laneChangedFrom="0" laneChangedTo="0"/>
        <edge id="-1375832145" sampledSeconds="0.00" departed="0" arrived="0" entered="0" left="0" laneChangedFrom="0" laneChangedTo="0"/>
        <edge id="-13904675" sampledSeconds="0.00" departed="0" arrived="0" entered="0" left="0" laneChangedFrom="0" laneChangedTo="0"/>
        <edge id="-14047759#3" sampledSeconds="0.00" departed="0" arrived="0" entered="0" left="0" laneChangedFrom="0" laneChangedTo="0"/>
        <edge id="-14047770#1" sampledSeconds="0.00" departed="0" arrived="0" entered="0" left="0" laneChangedFrom="0" laneChangedTo="0"/>
        <edge id="-14047787#2" sampledSeconds="0.00" departed="0" arrived="0" entered="0" left="0" laneChangedFrom="0" laneChangedTo="0"/>
        <edge id="-14047802" sampledSeconds="0.00" departed="0" arrived="0" entered="0" left="0" laneChangedFrom="0" laneChangedTo="0"/>
        <edge id="-1442162514" sampledSeconds="0.00" departed="0" arrived="0" entered="0" left="0" laneChangedFrom="0" laneChangedTo="0"/>
        <edge id="-1450939553#0" sampledSeconds="0.00" departed="0" arrived="0" entered="0" left="0" laneChangedFrom="0" laneChangedTo="0"/>
        <edge id="-1450939553#2" sampledSeconds="0.00" departed="0" arrived="0" entered="0" left="0" laneChangedFrom="0" laneChangedTo="0"/>
        <edge id="-1450939555" sampledSeconds="1.37" traveltime="1.03" overlapTraveltime="1.37" density="0.16" overlapDensity="0.22" laneDensity="0.16" occupancy="0.08" waitingTime="0.00" timeLoss="0.03" speed="14.60" speedRelative="1.05" departed="0" arrived="0" entered="1" left="1" laneChangedFrom="0" laneChangedTo="0" flow="8.66"/>
        <edge id="-1450939556#1" sampledSeconds="5.64" traveltime="5.30" overlapTraveltime="5.64" density="0.21" overlapDensity="0.23" laneDensity="0.21" occupancy="0.10" waitingTime="0.00" timeLoss="1.28" speed="11.52" speedRelative="0.83" departed="0" arrived="0" entered="1" left="1" laneChangedFrom="0" laneChangedTo="0" flow="8.84"/>
        <edge id="-1450939558#1" sampledSeconds="0.00" departed="0" arrived="0" entered="0" left="0" laneChangedFrom="0" laneChangedTo="0"/>
        <edge id="-150800557#1" sampledSeconds="20.76" traveltime="4.85" overlapTraveltime="5.21" density="0.76" overlapDensity="0.82" laneDensity="0.38" occupancy="0.19" waitingTime="0.00" timeLoss="1.93" speed="12.72" speedRelative="0.92" departed="0" arrived="1" entered="4" left="3" laneChangedFrom="0" laneChangedTo="0" flow="34.98"/>
        <edge id="-150800558#2" sampledSeconds="38.92" traveltime="12.57" overlapTraveltime="12.97" density="0.60" overlapDensity="0.62" laneDensity="0.60" occupancy="0.30" waitingTime="0.00" timeLoss="4.09" speed="12.01" speedRelative="0.86" departed="0" arrived="0" entered="3" left="3" laneChangedFrom="0" laneChangedTo="0" flow="26.11"/>
        <edge id="-160963287#0" sampledSeconds="0.00" departed="0" arrived="0" entered="0" left="0" laneChangedFrom="0" laneChangedTo="0"/>
        <edge id="-160963287#1" sampledSeconds="0.00" departed="0" arrived="0" entered="0" left="0" laneChangedFrom="0" laneChangedTo="0"/>
        <edge id="-160963287#2" sampledSeconds="0.00" departed="0" arrived="0" entered="0" left="0" laneChangedFrom="0" laneChangedTo="0"/>
        <edge id="-162745567" sampledSeconds="0.00" departed="0" arrived="0" entered="0" left="0" laneChangedFrom="0" laneChangedTo="0"/>
        <edge id="-192108787#2" sampledSeconds="0.00" departed="0" arrived="0" entered="0" left="0" laneChangedFrom="0" laneChangedTo="0"/>
        <edge id="-192108789#2" sampledSeconds="15.02" traveltime="14.26" overlapTraveltime="15.02" density="0.33" overlapDensity="0.35" laneDensity="0.33" occupancy="0.17" waitingTime="0.00" timeLoss="1.25" speed="7.24" speedRelative="0.87" departed="0" arrived="0" entered="1" left="1" laneChangedFrom="0" laneChangedTo="0" flow="8.65"/>
        <edge id="-233718298#0" sampledSeconds="0.00" departed="0" arrived="0" entered="0" left="0" laneChangedFrom="0" laneChangedTo="0"/>
        <edge id="-233718298#1" sampledSeconds="0.00" departed="0" arrived="0" entered="0" left="0" laneChangedFrom="0" laneChangedTo="0"/>
        <edge id="-233718299" sampledSeconds="0.00" departed="0" arrived="0" entered="0" left="0" laneChangedFrom="0" laneChangedTo="0"/>
        <edge id="-24450825#0" sampledSeconds="18.20" traveltime="8.25" overlapTraveltime="9.10" density="0.68" overlapDensity="0.75" laneDensity="0.68" occupancy="0.34" waitingTime="0.00" timeLoss="2.47" speed="6.95" speedRelative="0.83" departed="0" arrived="0" entered="2" left="2" laneChangedFrom="0" laneChangedTo="0" flow="17.11"/>
        <edge id="-24450825#2" sampledSeconds="10.59" traveltime="9.75" overlapTraveltime="10.59" density="0.29" overlapDensity="0.31" laneDensity="0.29" occupancy="0.15" waitingTime="0.00" timeLoss="1.57" speed="8.24" speedRelative="0.99" departed="0" arrived="0" entered="1" left="1" laneChangedFrom="0" laneChangedTo="0" flow="8.49"/>
        <edge id="-26143790#1" sampledSeconds="0.00" departed="0" arrived="0" entered="0" left="0" laneChangedFrom="0" laneChangedTo="0"/>
        <edge id="-293281654" sampledSeconds="11.26" traveltime="10.91" overlapTraveltime="11.26" density="0.17" overlapDensity="0.18" laneDensity="0.17" occupancy="0.09" waitingTime="0.00" timeLoss="0.67" speed="14.00" speedRelative="1.01" departed="0" arrived="0" entered="1" left="1" laneChangedFrom="0" laneChangedTo="0" flow="8.70"/>
        <edge id="-29333270" sampledSeconds="0.00" departed="0" arrived="0" entered="0" left="0" laneChangedFrom="0" laneChangedTo="0"/>
        <edge id="-29333273#2" sampledSeconds="17.94" traveltime="17.32" overlapTraveltime="17.94" density="0.29" overlapDensity="0.30" laneDensity="0.29" occupancy="0.14" waitingTime="0.00" timeLoss="1.16" speed="8.44" speedRelative="1.01" departed="0" arrived="0" entered="1" left="1" laneChangedFrom="0" laneChangedTo="0" flow="8.69"/>
        <edge id="-29333723#1" sampledSeconds="0.00" departed="0" arrived="0" entered="0" left="0" laneChangedFrom="0" laneChangedTo="0"/>
        <edge id="-310196058" sampledSeconds="3.20" traveltime="2.51" overlapTraveltime="3.20" density="0.40" overlapDensity="0.51" laneDensity="0.40" occupancy="0.19" waitingTime="0.00" timeLoss="0.46" speed="6.29" speedRelative="0.76" departed="0" arrived="0" entered="1" left="1" laneChangedFrom="0" laneChangedTo="0" flow="9.07"/>
        <edge id="-317027066" sampledSeconds="0.00" departed="0" arrived="0" entered="0" left="0" laneChangedFrom="0" laneChangedTo="0"/>
        <edge id="-317183891#0" sampledSeconds="0.00" departed="0" arrived="0" entered="0" left="0" laneChangedFrom="0" laneChangedTo="0"/>
        <edge id="-317183891#1" sampledSeconds="0.00" departed="0" arrived="0" entered="0" left="0" laneChangedFrom="0" laneChangedTo="0"/>
        <edge id="-32866834#1" sampledSeconds="0.00" departed="0" arrived="0" entered="0" left="0" laneChangedFrom="0" laneChangedTo="0"/>
        <edge id="-35078324#1" sampledSeconds="0.00" departed="0" arrived="0" entered="0" left="0" laneChangedFrom="0" laneChangedTo="0"/>
        <edge id="-35078325" sampledSeconds="0.00" departed="0" arrived="0" entered="0" left="0" laneChangedFrom="0" laneChangedTo="0"/>
        <edge id="-360319695#1" sampledSeconds="9.89" traveltime="8.69" overlapTraveltime="9.89" density="0.26" overlapDensity="0.30" laneDensity="0.13" occupancy="0.07" waitingTime="0.00" timeLoss="2.31" speed="8.62" speedRelative="0.62" departed="0" arrived="0" entered="1" left="1" laneChangedFrom="0" laneChangedTo="0" flow="8.12"/>
        <edge id="-372245389#3" sampledSeconds="0.00" departed="0" arrived="0" entered="0" left="0" laneChangedFrom="0" laneChangedTo="0"/>
        <edge id="-372245390#3" sampledSeconds="0.00" departed="0" arrived="0" entered="0" left="0" laneChangedFrom="0" laneChangedTo="0"/>
        <edge id="-37692282#2" sampledSeconds="0.00" departed="0" arrived="0" entered="0" left="0" laneChangedFrom="0" laneChangedTo="0"/>
        <edge id="-37692282#5" sampledSeconds="0.00" departed="0" arrived="0" entered="0" left="0" laneChangedFrom="0" laneChangedTo="0"/>
        <edge id="-37692282#8" sampledSeconds="0.00" departed="0" arrived="0" entered="0" left="0" laneChangedFrom="0" laneChangedTo="0"/>
        <edge id="-37746962#1" sampledSeconds="0.00" departed="0" arrived="0" entered="0" left="0" laneChangedFrom="0" laneChangedTo="0"/>
        <edge id="-37747137#1" sampledSeconds="16.23" traveltime="4.86" overlapTraveltime="5.41" density="0.55" overlapDensity="0.62" laneDensity="0.28" occupancy="0.14" waitingTime="0.00" timeLoss="1.85" speed="12.70" speedRelative="0.91" departed="0" arrived="0" entered="3" left="3" laneChangedFrom="0" laneChangedTo="0" flow="25.30"/>
        <edge id="-37747648#2" sampledSeconds="0.00" departed="0" arrived="0" entered="0" left="0" laneChangedFrom="0" laneChangedTo="0"/>
        <edge id="-37747648#5" sampledSeconds="0.00" departed="0" arrived="0" entered="0" left="0" laneChangedFrom="0" laneChangedTo="0"/>
        <edge id="-3788308" sampledSeconds="0.00" departed="0" arrived="0" entered="0" left="0" laneChangedFrom="0" laneChangedTo="0"/>
        <edge id="-3789941" sampledSeconds="0.00" departed="0" arrived="0" entered="0" left="0" laneChangedFrom="0" laneChangedTo="0"/>
        <edge id="-38062538" sampledSeconds="9.15" traveltime="8.71" overlapTraveltime="9.47" density="0.36" overlapDensity="0.38" laneDensity="0.36" occupancy="0.18" waitingTime="0.00" timeLoss="0.84" speed="6.67" speedRelative="0.80" departed="0" arrived="1" entered="1" left="0" laneChangedFrom="0" laneChangedTo="0" flow="8.69"/>
        <edge id="-38098902#1" sampledSeconds="0.00" departed="0" arrived="0" entered="0" left="0" laneChangedFrom="0" laneChangedTo="0"/>
        <edge id="-38098902#3" sampledSeconds="0.00" departed="0" arrived="0" entered="0" left="0" laneChangedFrom="0" laneChangedTo="0"/>
        <edge id="-3809980" sampledSeconds="0.00" departed="0" arrived="0" entered="0" left="0" laneChangedFrom="0" laneChangedTo="0"/>
        <edge id="-3809981#0" sampledSeconds="0.00" departed="0" arrived="0" entered="0" left="0" laneChangedFrom="0" laneChangedTo="0"/>
        <edge id="-3809981#1" sampledSeconds="0.00" departed="0" arrived="0" entered="0" left="0" laneChangedFrom="0" laneChangedTo="0"/>
        <edge id="-3809981#2" sampledSeconds="0.00" departed="0" arrived="0" entered="0" left="0" laneChangedFrom="0" laneChangedTo="0"/>
        <edge id="-3809981#3" sampledSeconds="0.00" departed="0" arrived="0" entered="0" left="0" laneChangedFrom="0" laneChangedTo="0"/>
        <edge id="-3818568#2" sampledSeconds="0.00" departed="0" arrived="0" entered="0" left="0" laneChangedFrom="0" laneChangedTo="0"/>
        <edge id="-3818568#3" sampledSeconds="0.00" departed="0" arrived="0" entered="0" left="0" laneChangedFrom="0" laneChangedTo="0"/>
        <edge id="-384401180" sampledSeconds="4.49" traveltime="1.14" overlapTraveltime="1.50" density="0.52" overlapDensity="0.68" laneDensity="0.26" occupancy="0.13" waitingTime="0.00" timeLoss="0.23" speed="13.98" speedRelative="1.01" departed="0" arrived="0" entered="3" left="3" laneChangedFrom="0" laneChangedTo="0" flow="26.16"/>
        <edge id="-39117800#0" sampledSeconds="11.22" traveltime="10.31" overlapTraveltime="11.22" density="0.30" overlapDensity="0.33" laneDensity="0.30" occupancy="0.15" waitingTime="0.00" timeLoss="1.12" speed="7.87" speedRelative="0.94" departed="0" arrived="0" entered="1" left="1" laneChangedFrom="0" laneChangedTo="0" flow="8.47"/>
        <edge id="-39117800#2" sampledSeconds="9.61" traveltime="9.05" overlapTraveltime="9.61" density="0.30" overlapDensity="0.31" laneDensity="0.30" occupancy="0.15" waitingTime="0.00" timeLoss="0.76" speed="8.22" speedRelative="0.99" departed="0" arrived="0" entered="1" left="1" laneChangedFrom="0" laneChangedTo="0" flow="8.74"/>
        <edge id="-3936650" sampledSeconds="0.00" departed="0" arrived="0" entered="0" left="0" laneChangedFrom="0" laneChangedTo="0"/>
        <edge id="-3936651#1" sampledSeconds="0.00" departed="0" arrived="0" entered="0" left="0" laneChangedFrom="0" laneChangedTo="0"/>
        <edge id="-3936652#3" sampledSeconds="0.00" departed="0" arrived="0" entered="0" left="0" laneChangedFrom="0" laneChangedTo="0"/>
        <edge id="-3936660#2" sampledSeconds="0.00" departed="0" arrived="0" entered="0" left="0" laneChangedFrom="0" laneChangedTo="0"/>
        <edge id="-3957127" sampledSeconds="0.00" departed="0" arrived="0" entered="0" left="0" laneChangedFrom="0" laneChangedTo="0"/>
        <edge id="-3957136#3" sampledSeconds="0.00" departed="0" arrived="0" entered="0" left="0" laneChangedFrom="0" laneChangedTo="0"/>
        <edge id="-39944037" sampledSeconds="0.00" departed="0" arrived="0" entered="0" left="0" laneChangedFrom="0" laneChangedTo="0"/>
        <edge id="-39944039#1" sampledSeconds="0.00" departed="0" arrived="0" entered="0" left="0" laneChangedFrom="0" laneChangedTo="0"/>
        <edge id="-40260270" sampledSeconds="21.55" traveltime="20.14" overlapTraveltime="21.55" density="1.64" overlapDensity="1.75" laneDensity="1.64" occupancy="0.85" waitingTime="16.00" timeLoss="19.22" speed="1.61" speedRelative="0.12" departed="0" arrived="0" entered="1" left="1" laneChangedFrom="0" laneChangedTo="0" flow="9.49"/>
        <edge id="-41228866#1" sampledSeconds="6.70" traveltime="6.21" overlapTraveltime="6.81" density="0.30" overlapDensity="0.32" laneDensity="0.30" occupancy="0.15" waitingTime="0.00" timeLoss="0.69" speed="8.10" speedRelative="0.97" departed="0" arrived="1" entered="1" left="0" laneChangedFrom="0" laneChangedTo="0" flow="8.72"/>
        <edge id="-41565486" sampledSeconds="0.00" departed="0" arrived="0" entered="0" left="0" laneChangedFrom="0" laneChangedTo="0"/>
        <edge id="-41592120#2" sampledSeconds="6.24" traveltime="6.19" overlapTraveltime="7.06" density="0.33" overlapDensity="0.39" laneDensity="0.33" occupancy="0.18" waitingTime="0.00" timeLoss="1.21" speed="6.21" speedRelative="0.75" departed="1" arrived="0" entered="0" left="1" laneChangedFrom="0" laneChangedTo="0" flow="7.47"/>
        <edge id="-42239605#1" sampledSeconds="0.00" departed="0" arrived="0" entered="0" left="0" laneChangedFrom="0" laneChangedTo="0"/>
        <edge id="-42239605#2" sampledSeconds="4.03" traveltime="3.17" overlapTraveltime="4.03" density="0.31" overlapDensity="0.39" laneDensity="0.31" occupancy="0.16" waitingTime="0.00" timeLoss="0.28" speed="7.45" speedRelative="0.89" departed="0" arrived="0" entered="1" left="1" laneChangedFrom="0" laneChangedTo="0" flow="8.20"/>
        <edge id="-42239606#0" sampledSeconds="0.00" departed="0" arrived="0" entered="0" left="0" laneChangedFrom="0" laneChangedTo="0"/>
        <edge id="-42239606#2" sampledSeconds="8.49" traveltime="7.52" overlapTraveltime="8.49" density="0.32" overlapDensity="0.37" laneDensity="0.32" occupancy="0.16" waitingTime="0.00" timeLoss="0.97" speed="7.18" speedRelative="0.86" departed="0" arrived="0" entered="1" left="1" laneChangedFrom="0" laneChangedTo="0" flow="8.40"/>
        <edge id="-42293718#1" sampledSeconds="0.00" departed="0" arrived="0" entered="0" left="0" laneChangedFrom="0" laneChangedTo="0"/>
        <edge id="-42293718#2" sampledSeconds="0.00" departed="0" arrived="0" entered="0" left="0" laneChangedFrom="0" laneChangedTo="0"/>
        <edge id="-42293718#4" sampledSeconds="0.00" departed="0" arrived="0" entered="0" left="0" laneChangedFrom="0" laneChangedTo="0"/>
        <edge id="-42293718#5" sampledSeconds="0.00" departed="0" arrived="0" entered="0" left="0" laneChangedFrom="0" laneChangedTo="0"/>
        <edge id="-42293718#6" sampledSeconds="0.00" departed="0" arrived="0" entered="0" left="0" laneChangedFrom="0" laneChangedTo="0"/>
        <edge id="-42293718#7" sampledSeconds="0.00" departed="0" arrived="0" entered="0" left="0" laneChangedFrom="0" laneChangedTo="0"/>
        <edge id="-4395692#1" sampledSeconds="0.00" departed="0" arrived="0" entered="0" left="0" laneChangedFrom="0" laneChangedTo="0"/>
        <edge id="-4395830" sampledSeconds="0.00" departed="0" arrived="0" entered="0" left="0" laneChangedFrom="0" laneChangedTo="0"/>
        <edge id="-4395858#0" sampledSeconds="0.00" departed="0" arrived="0" entered="0" left="0" laneChangedFrom="0" laneChangedTo="0"/>
        <edge id="-4395858#1" sampledSeconds="5.42" traveltime="4.88" overlapTraveltime="5.51" density="0.34" overlapDensity="0.37" laneDensity="0.34" occupancy="0.16" waitingTime="0.00" timeLoss="1.02" speed="7.25" speedRelative="0.87" departed="0" arrived="1" entered="1" left="0" laneChangedFrom="0" laneChangedTo="0" flow="8.82"/>
        <edge id="-4395858#5" sampledSeconds="0.00" departed="0" arrived="0" entered="0" left="0" laneChangedFrom="0" laneChangedTo="0"/>
        <edge id="-4395858#6" sampledSeconds="0.00" departed="0" arrived="0" entered="0" left="0" laneChangedFrom="0" laneChangedTo="0"/>
        <edge id="-4395858#7" sampledSeconds="0.00" departed="0" arrived="0" entered="0" left="0" laneChangedFrom="0" laneChangedTo="0"/>
        <edge id="-4395890" sampledSeconds="0.00" departed="0" arrived="0" entered="0" left="0" laneChangedFrom="0" laneChangedTo="0"/>
        <edge id="-4395933#0" sampledSeconds="8.41" traveltime="3.86" overlapTraveltime="4.20" density="0.32" overlapDensity="0.35" laneDensity="0.32" occupancy="0.16" waitingTime="0.00" timeLoss="0.34" speed="14.86" speedRelative="1.07" departed="0" arrived="0" entered="2" left="2" laneChangedFrom="0" laneChangedTo="0" flow="17.38"/>
        <edge id="-4395933#2" sampledSeconds="4.00" traveltime="1.66" overlapTraveltime="2.00" density="0.32" overlapDensity="0.39" laneDensity="0.32" occupancy="0.16" waitingTime="0.00" timeLoss="0.14" speed="14.93" speedRelative="1.08" departed="0" arrived="0" entered="2" left="2" laneChangedFrom="0" laneChangedTo="0" flow="17.38"/>
        <edge id="-4395933#3" sampledSeconds="3.24" traveltime="1.29" overlapTraveltime="1.62" density="0.32" overlapDensity="0.40" laneDensity="0.32" occupancy="0.16" waitingTime="0.00" timeLoss="0.05" speed="15.27" speedRelative="1.10" departed="0" arrived="0" entered="2" left="2" laneChangedFrom="0" laneChangedTo="0" flow="17.33"/>
        <edge id="-4395933#4" sampledSeconds="7.92" traveltime="3.62" overlapTraveltime="3.96" density="0.32" overlapDensity="0.35" laneDensity="0.32" occupancy="0.16" waitingTime="0.00" timeLoss="0.28" speed="14.93" speedRelative="1.08" departed="0" arrived="0" entered="2" left="2" laneChangedFrom="0" laneChangedTo="0" flow="17.36"/>
        <edge id="-4395994#3" sampledSeconds="29.25" traveltime="6.56" overlapTraveltime="7.31" density="1.32" overlapDensity="1.47" laneDensity="1.32" occupancy="0.67" waitingTime="0.00" timeLoss="2.46" speed="7.24" speedRelative="0.87" departed="0" arrived="0" entered="4" left="4" laneChangedFrom="0" laneChangedTo="0" flow="34.48"/>
        <edge id="-4395994#5" sampledSeconds="39.28" traveltime="9.13" overlapTraveltime="9.82" density="1.33" overlapDensity="1.43" laneDensity="1.33" occupancy="0.66" waitingTime="0.00" timeLoss="3.63" speed="7.27" speedRelative="0.87" departed="0" arrived="0" entered="4" left="4" laneChangedFrom="0" laneChangedTo="0" flow="34.78"/>
        <edge id="-4396161#1" sampledSeconds="14.51" traveltime="14.03" overlapTraveltime="14.51" density="0.22" overlapDensity="0.23" laneDensity="0.22" occupancy="0.11" waitingTime="0.00" timeLoss="1.08" speed="10.86" speedRelative="0.78" departed="0" arrived="0" entered="1" left="1" laneChangedFrom="0" laneChangedTo="0" flow="8.69"/>
        <edge id="-4540248" sampledSeconds="0.00" departed="0" arrived="0" entered="0" left="0" laneChangedFrom="0" laneChangedTo="0"/>
        <edge id="-4540420" sampledSeconds="0.00" departed="0" arrived="0" entered="0" left="0" laneChangedFrom="0" laneChangedTo="0"/>
        <edge id="-4825365" sampledSeconds="0.00" departed="0" arrived="0" entered="0" left="0" laneChangedFrom="0" laneChangedTo="0"/>
        <edge id="-4829715#1" sampledSeconds="0.00" departed="0" arrived="0" entered="0" left="0" laneChangedFrom="0" laneChangedTo="0"/>
        <edge id="-4829724" sampledSeconds="0.00" departed="0" arrived="0" entered="0" left="0" laneChangedFrom="0" laneChangedTo="0"/>
        <edge id="-497328791" sampledSeconds="0.00" departed="0" arrived="0" entered="0" left="0" laneChangedFrom="0" laneChangedTo="0"/>
        <edge id="-497484024" sampledSeconds="0.00" departed="0" arrived="0" entered="0" left="0" laneChangedFrom="0" laneChangedTo="0"/>
        <edge id="-497486086" sampledSeconds="0.00" departed="0" arrived="0" entered="0" left="0" laneChangedFrom="0" laneChangedTo="0"/>
        <edge id="-497486087" sampledSeconds="0.00" departed="0" arrived="0" entered="0" left="0" laneChangedFrom="0" laneChangedTo="0"/>
        <edge id="-52879958" sampledSeconds="0.00" departed="0" arrived="0" entered="0" left="0" laneChangedFrom="0" laneChangedTo="0"/>
        <edge id="-52881850#4" sampledSeconds="0.00" departed="0" arrived="0" entered="0" left="0" laneChangedFrom="0" laneChangedTo="0"/>
        <edge id="-547144813#1" sampledSeconds="0.00" departed="0" arrived="0" entered="0" left="0" laneChangedFrom="0" laneChangedTo="0"/>
        <edge id="-547144813#2" sampledSeconds="0.00" departed="0" arrived="0" entered="0" left="0" laneChangedFrom="0" laneChangedTo="0"/>
        <edge id="-547144817" sampledSeconds="0.00" departed="0" arrived="0" entered="0" left="0" laneChangedFrom="0" laneChangedTo="0"/>
        <edge id="-547766102" sampledSeconds="0.00" departed="0" arrived="0" entered="0" left="0" laneChangedFrom="0" laneChangedTo="0"/>
        <edge id="-548793704#1" sampledSeconds="0.00" departed="0" arrived="0" entered="0" left="0" laneChangedFrom="0" laneChangedTo="0"/>
        <edge id="-55668395" sampledSeconds="4.05" traveltime="4.09" overlapTraveltime="4.75" density="0.28" overlapDensity="0.33" laneDensity="0.28" occupancy="0.15" waitingTime="0.00" timeLoss="0.69" speed="7.28" speedRelative="0.87" departed="1" arrived="0" entered="0" left="1" laneChangedFrom="0" laneChangedTo="0" flow="7.24"/>
        <edge id="-55668396" sampledSeconds="0.00" departed="0" arrived="0" entered="0" left="0" laneChangedFrom="0" laneChangedTo="0"/>
        <edge id="-55668397" sampledSeconds="0.00" departed="0" arrived="0" entered="0" left="0" laneChangedFrom="0" laneChangedTo="0"/>