<?xml version="1.0" encoding="UTF-8"?>

<!-- generated on 2026-01-09T14:48:59.598200+01:00 by Eclipse SUMO sumo 1.25.0
<sumoConfiguration xmlns:xsi="http://www.w3.org/2001/XMLSchema-instance" xsi:noNamespaceSchemaLocation="http://sumo.dlr.de/xsd/sumoConfiguration.xsd">

    <input>
        <net-file value="osm.net.xml.gz"/>
        <route-files value="osm.passenger.trips.xml"/>
        <additional-files value="osm.poly.xml.gz,output.add.xml"/>
    </input>

    <output>
        <fcd-output value="fcd.xml"/>
        <tripinfo-output value="tripinfos.xml"/>
        <statistic-output value="stats.xml"/>
    </output>

    <time>
        <step-length value="1.0"/>
    </time>

    <processing>
        <ignore-route-errors value="true"/>
        <tls.actuated.jam-threshold value="30"/>
    </processing>

    <routing>
        <device.rerouting.adaptation-steps value="18"/>
        <device.rerouting.adaptation-interval value="10"/>
    </routing>

    <report>
        <verbose value="true"/>
        <duration-log.statistics value="true"/>
        <no-step-log value="true"/>
    </report>

    <random_number>
        <seed value="42"/>
    </random_number>

    <gui_only>
        <gui-settings-file value="osm.view.xml"/>
    </gui_only>

</sumoConfiguration>
-->

<fcd-export xmlns:xsi="http://www.w3.org/2001/XMLSchema-instance" xsi:noNamespaceSchemaLocation="http://sumo.dlr.de/xsd/fcd_file.xsd">
    <timestep time="0.00">
        <vehicle id="veh0" x="314.11" y="37.90" angle="344.84" type="veh_passenger" speed="7.90" pos="5.10" lane="33920769#0_0" slope="0.00"/>
    </timestep>
    <timestep time="1.00">
        <vehicle id="veh0" x="312.24" y="44.85" angle="344.99" type="veh_passenger" speed="7.19" pos="12.29" lane="33920769#0_0" slope="0.00"/>
    </timestep>
    <timestep time="2.00">
        <vehicle id="veh0" x="310.42" y="51.64" angle="344.99" type="veh_passenger" speed="7.03" pos="19.32" lane="33920769#0_0" slope="0.00"/>
    </timestep>
    <timestep time="3.00">
        <vehicle id="veh0" x="308.47" y="58.92" angle="344.98" type="veh_passenger" speed="7.54" pos="26.86" lane="33920769#0_0" slope="0.00"/>
    </timestep>
    <timestep time="4.00">
        <vehicle id="veh0" x="306.56" y="66.03" angle="344.97" type="veh_passenger" speed="7.36" pos="34.22" lane="33920769#0_0" slope="0.00"/>
    </timestep>
    <timestep time="5.00">
        <vehicle id="veh0" x="304.66" y="73.12" angle="344.97" type="veh_passenger" speed="7.35" pos="41.57" lane="33920769#0_0" slope="0.00"/>
    </timestep>
    <timestep time="6.00">
        <vehicle id="veh0" x="302.78" y="80.09" angle="344.93" type="veh_passenger" speed="7.22" pos="48.78" lane="33920769#0_0" slope="0.00"/>
    </timestep>
    <timestep time="7.00">
        <vehicle id="veh0" x="301.01" y="86.66" angle="344.91" type="veh_passenger" speed="6.80" pos="55.58" lane="33920769#0_0" slope="0.00"/>
    </timestep>
    <timestep time="8.00">
        <vehicle id="veh0" x="299.01" y="94.10" angle="344.97" type="veh_passenger" speed="7.71" pos="63.29" lane="33920769#0_0" slope="0.00"/>
    </timestep>
    <timestep time="9.00">
        <vehicle id="veh0" x="296.96" y="101.72" angle="344.97" type="veh_passenger" speed="7.89" pos="71.18" lane="33920769#0_0" slope="0.00"/>
    </timestep>
    <timestep time="10.00">
        <vehicle id="veh0" x="294.97" y="109.15" angle="344.97" type="veh_passenger" speed="7.70" pos="78.88" lane="33920769#0_0" slope="0.00"/>
    </timestep>
    <timestep time="11.00">
        <vehicle id="veh0" x="292.96" y="116.63" angle="344.97" type="veh_passenger" speed="7.74" pos="86.62" lane="33920769#0_0" slope="0.00"/>
    </timestep>
    <timestep time="12.00">
        <vehicle id="veh0" x="290.98" y="124.03" angle="344.97" type="veh_passenger" speed="7.66" pos="94.28" lane="33920769#0_0" slope="0.00"/>
    </timestep>
    <timestep time="13.00">
        <vehicle id="veh0" x="289.15" y="130.81" angle="344.97" type="veh_passenger" speed="7.03" pos="101.31" lane="33920769#0_0" slope="0.00"/>
    </timestep>
    <timestep time="14.00">
        <vehicle id="veh0" x="287.18" y="138.18" angle="344.97" type="veh_passenger" speed="7.63" pos="108.93" lane="33920769#0_0" slope="0.00"/>
    </timestep>
    <timestep time="15.00">
        <vehicle id="veh0" x="285.40" y="144.77" angle="344.97" type="veh_passenger" speed="6.83" pos="115.76" lane="33920769#0_0" slope="0.00"/>
    </timestep>
    <timestep time="16.00">
        <vehicle id="veh0" x="283.51" y="151.83" angle="344.97" type="veh_passenger" speed="7.31" pos="123.07" lane="33920769#0_0" slope="0.00"/>
        <vehicle id="veh1" x="918.87" y="1374.76" angle="94.30" type="veh_passenger" speed="8.93" pos="5.10" lane="-55668395_0" slope="0.00"/>
    </timestep>
    <timestep time="17.00">
        <vehicle id="veh0" x="281.51" y="159.29" angle="344.97" type="veh_passenger" speed="7.72" pos="130.79" lane="33920769#0_0" slope="0.00"/>
        <vehicle id="veh1" x="925.45" y="1376.13" angle="66.08" type="veh_passenger" speed="8.00" pos="13.10" lane="-55668395_0" slope="0.00"/>
    </timestep>
    <timestep time="18.00">
        <vehicle id="veh0" x="279.75" y="165.82" angle="344.97" type="veh_passenger" speed="6.77" pos="137.56" lane="33920769#0_0" slope="0.00"/>
        <vehicle id="veh1" x="927.49" y="1383.77" angle="14.95" type="veh_passenger" speed="7.91" pos="21.01" lane="-55668395_0" slope="0.00"/>
    </timestep>
    <timestep time="19.00">
        <vehicle id="veh0" x="277.90" y="172.73" angle="344.97" type="veh_passenger" speed="7.15" pos="144.71" lane="33920769#0_0" slope="0.00"/>
        <vehicle id="veh1" x="928.96" y="1389.27" angle="14.95" type="veh_passenger" speed="5.69" pos="26.70" lane="-55668395_0" slope="0.00"/>
    </timestep>
    <timestep time="20.00">
        <vehicle id="veh0" x="275.87" y="180.28" angle="344.97" type="veh_passenger" speed="7.82" pos="152.53" lane="33920769#0_0" slope="0.00"/>
        <vehicle id="veh1" x="931.74" y="1396.18" angle="25.51" type="veh_passenger" speed="7.53" pos="4.66" lane=":699457911_7_0" slope="0.00"/>
    </timestep>
    <timestep time="21.00">
        <vehicle id="veh0" x="274.12" y="186.79" angle="344.97" type="veh_passenger" speed="6.74" pos="159.27" lane="33920769#0_0" slope="0.00"/>
        <vehicle id="veh1" x="938.24" y="1398.31" angle="83.22" type="veh_passenger" speed="7.30" pos="11.95" lane=":699457911_7_0" slope="0.00"/>
    </timestep>
    <timestep time="22.00">
        <vehicle id="veh0" x="272.28" y="193.63" angle="344.97" type="veh_passenger" speed="7.09" pos="166.35" lane="33920769#0_0" slope="0.00"/>
        <vehicle id="veh1" x="945.18" y="1396.05" angle="110.43" type="veh_passenger" speed="7.32" pos="4.66" lane="160963287#2_0" slope="0.00"/>
    </timestep>
    <timestep time="23.00">
        <vehicle id="veh0" x="270.30" y="201.00" angle="344.97" type="veh_passenger" speed="7.63" pos="173.98" lane="33920769#0_0" slope="0.00"/>
        <vehicle id="veh1" x="952.84" y="1393.11" angle="110.99" type="veh_passenger" speed="8.21" pos="12.87" lane="160963287#2_0" slope="0.00"/>
    </timestep>
    <timestep time="24.00">
        <vehicle id="veh0" x="268.43" y="207.97" angle="344.99" type="veh_passenger" speed="7.22" pos="181.20" lane="33920769#0_0" slope="0.00"/>
        <vehicle id="veh1" x="960.59" y="1390.14" angle="110.96" type="veh_passenger" speed="8.30" pos="21.17" lane="160963287#2_0" slope="0.00"/>
    </timestep>
    <timestep time="25.00">
        <vehicle id="veh0" x="266.58" y="215.40" angle="346.53" type="veh_passenger" speed="7.66" pos="4.35" lane=":cluster_10307572679_10307572682_10307572690_12400352698_#1more_1_0" slope="0.00"/>
        <vehicle id="veh1" x="968.44" y="1387.13" angle="110.94" type="veh_passenger" speed="8.42" pos="29.59" lane="160963287#2_0" slope="0.00"/>
    </timestep>
    <timestep time="26.00">
        <vehicle id="veh0" x="265.59" y="222.91" angle="354.69" type="veh_passenger" speed="7.60" pos="11.95" lane=":cluster_10307572679_10307572682_10307572690_12400352698_#1more_1_0" slope="0.00"/>
        <vehicle id="veh1" x="974.46" y="1384.69" angle="112.46" type="veh_passenger" speed="6.51" pos="0.95" lane=":479669435_0_0" slope="0.00"/>
    </timestep>
    <timestep time="27.00">
        <vehicle id="veh0" x="269.98" y="228.24" angle="54.12" type="veh_passenger" speed="7.56" pos="3.69" lane="1127365918_1" slope="0.00"/>
        <vehicle id="veh1" x="976.58" y="1379.66" angle="164.60" type="veh_passenger" speed="5.98" pos="6.93" lane=":479669435_0_0" slope="0.00"/>
    </timestep>
    <timestep time="28.00">
        <vehicle id="veh0" x="276.68" y="231.92" angle="61.27" type="veh_passenger" speed="7.65" pos="11.35" lane="1127365918_1" slope="0.00"/>
        <vehicle id="veh1" x="974.94" y="1373.61" angle="195.54" type="veh_passenger" speed="6.28" pos="5.99" lane="-39117800#2_0" slope="0.00"/>
    </timestep>
    <timestep time="29.00">
        <vehicle id="veh0" x="282.85" y="235.42" angle="60.07" type="veh_passenger" speed="7.10" pos="18.44" lane="1127365918_1" slope="0.00"/>
        <vehicle id="veh1" x="972.71" y="1365.60" angle="195.54" type="veh_passenger" speed="8.32" pos="14.31" lane="-39117800#2_0" slope="0.00"/>
    </timestep>
    <timestep time="30.00">
        <vehicle id="veh0" x="288.67" y="238.80" angle="59.89" type="veh_passenger" speed="6.75" pos="25.19" lane="1127365918_1" slope="0.00"/>
        <vehicle id="veh1" x="970.41" y="1357.32" angle="195.54" type="veh_passenger" speed="8.59" pos="22.90" lane="-39117800#2_0" slope="0.00"/>
    </timestep>
    <timestep time="31.00">
        <vehicle id="veh0" x="295.25" y="242.60" angle="59.97" type="veh_passenger" speed="7.60" pos="32.79" lane="1127365918_1" slope="0.00"/>
        <vehicle id="veh1" x="968.07" y="1348.93" angle="195.54" type="veh_passenger" speed="8.70" pos="31.60" lane="-39117800#2_0" slope="0.00"/>
        <vehicle id="veh2" x="33.69" y="952.94" angle="190.52" type="veh_passenger" speed="9.68" pos="5.10" lane="41228866#0_0" slope="0.00"/>
    </timestep>
    <timestep time="32.00">
        <vehicle id="veh0" x="299.81" y="248.93" angle="59.94" type="veh_passenger" speed="6.96" pos="39.76" lane="1127365918_0" slope="0.00"/>
        <vehicle id="veh1" x="965.96" y="1341.34" angle="195.54" type="veh_passenger" speed="7.88" pos="39.48" lane="-39117800#2_0" slope="0.00"/>
        <vehicle id="veh2" x="31.96" y="943.65" angle="190.52" type="veh_passenger" speed="9.46" pos="14.56" lane="41228866#0_0" slope="0.00"/>
    </timestep>
    <timestep time="33.00">
        <vehicle id="veh0" x="304.13" y="251.43" angle="59.94" type="veh_passenger" speed="4.98" pos="44.74" lane="1127365918_0" slope="0.00"/>
        <vehicle id="veh1" x="963.59" y="1332.80" angle="195.54" type="veh_passenger" speed="8.86" pos="48.34" lane="-39117800#2_0" slope="0.00"/>
        <vehicle id="veh2" x="30.56" y="935.16" angle="188.92" type="veh_passenger" speed="8.60" pos="23.16" lane="41228866#0_0" slope="0.00"/>
    </timestep>
    <timestep time="34.00">
        <vehicle id="veh0" x="305.54" y="252.29" angle="59.51" type="veh_passenger" speed="1.66" pos="46.39" lane="1127365918_0" slope="0.00"/>
        <vehicle id="veh1" x="961.52" y="1325.32" angle="195.45" type="veh_passenger" speed="7.77" pos="56.11" lane="-39117800#2_0" slope="0.00"/>
        <vehicle id="veh2" x="29.18" y="926.35" angle="188.92" type="veh_passenger" speed="8.91" pos="32.07" lane="41228866#0_0" slope="0.00"/>
    </timestep>
    <timestep time="35.00">
        <vehicle id="veh0" x="305.95" y="252.55" angle="59.27" type="veh_passenger" speed="0.49" pos="46.88" lane="1127365918_0" slope="0.00"/>
        <vehicle id="veh1" x="959.31" y="1317.31" angle="195.39" type="veh_passenger" speed="8.31" pos="64.41" lane="-39117800#2_0" slope="0.00"/>
        <vehicle id="veh2" x="27.77" y="917.38" angle="188.92" type="veh_passenger" speed="9.08" pos="41.15" lane="41228866#0_0" slope="0.00"/>
    </timestep>
    <timestep time="36.00">
        <vehicle id="veh0" x="308.12" y="253.94" angle="57.96" type="veh_passenger" speed="2.58" pos="1.45" lane=":cluster_26756094_411566095_4_0" slope="0.00"/>
        <vehicle id="veh1" x="956.97" y="1308.81" angle="195.39" type="veh_passenger" speed="8.82" pos="73.23" lane="-39117800#2_0" slope="0.00"/>
        <vehicle id="veh2" x="26.52" y="909.39" angle="188.92" type="veh_passenger" speed="8.09" pos="49.24" lane="41228866#0_0" slope="0.00"/>
    </timestep>
    <timestep time="37.00">
        <vehicle id="veh0" x="311.71" y="256.25" angle="57.26" type="veh_passenger" speed="4.30" pos="5.75" lane=":cluster_26756094_411566095_4_0" slope="0.00"/>
        <vehicle id="veh1" x="954.63" y="1300.30" angle="195.40" type="veh_passenger" speed="8.82" pos="8.02" lane=":479669457_0_0" slope="0.00"/>
        <vehicle id="veh2" x="27.73" y="903.28" angle="162.97" type="veh_passenger" speed="6.58" pos="5.51" lane=":322699688_3_0" slope="0.00"/>
    </timestep>
    <timestep time="38.00">
        <vehicle id="veh0" x="317.12" y="259.72" angle="57.26" type="veh_passenger" speed="6.48" pos="12.23" lane=":cluster_26756094_411566095_4_0" slope="0.00"/>
        <vehicle id="veh1" x="952.32" y="1291.93" angle="195.40" type="veh_passenger" speed="8.69" pos="2.29" lane="-39117800#0_0" slope="0.00"/>
        <vehicle id="veh2" x="34.84" y="901.03" angle="101.90" type="veh_passenger" speed="7.58" pos="3.99" lane="29333273#0_0" slope="0.00"/>
    </timestep>
    <timestep time="39.00">
        <vehicle id="veh0" x="323.66" y="263.93" angle="57.26" type="veh_passenger" speed="7.84" pos="20.07" lane=":cluster_26756094_411566095_4_0" slope="0.00"/>
        <vehicle id="veh1" x="950.16" y="1284.07" angle="195.40" type="veh_passenger" speed="8.15" pos="10.45" lane="-39117800#0_0" slope="0.00"/>
        <vehicle id="veh2" x="44.10" y="899.36" angle="100.21" type="veh_passenger" speed="9.41" pos="13.40" lane="29333273#0_0" slope="0.00"/>
    </timestep>
    <timestep time="40.00">
        <vehicle id="veh0" x="329.72" y="267.86" angle="56.89" type="veh_passenger" speed="7.24" pos="3.61" lane="360319693_0" slope="0.00"/>
        <vehicle id="veh1" x="947.92" y="1275.96" angle="195.40" type="veh_passenger" speed="8.41" pos="18.86" lane="-39117800#0_0" slope="0.00"/>
        <vehicle id="veh2" x="52.36" y="897.90" angle="99.99" type="veh_passenger" speed="8.39" pos="21.79" lane="29333273#0_0" slope="0.00"/>
    </timestep>
    <timestep time="41.00">
        <vehicle id="veh0" x="335.43" y="271.61" angle="56.75" type="veh_passenger" speed="6.81" pos="10.42" lane="360319693_0" slope="0.00"/>
        <vehicle id="veh1" x="945.78" y="1268.19" angle="195.40" type="veh_passenger" speed="8.05" pos="26.91" lane="-39117800#0_0" slope="0.00"/>
        <vehicle id="veh2" x="61.65" y="896.41" angle="99.08" type="veh_passenger" speed="9.41" pos="31.20" lane="29333273#0_0" slope="0.00"/>
    </timestep>
    <timestep time="42.00">
        <vehicle id="veh0" x="341.61" y="275.58" angle="57.56" type="veh_passenger" speed="7.34" pos="17.76" lane="360319693_0" slope="0.00"/>
        <vehicle id="veh1" x="943.57" y="1260.16" angle="195.40" type="veh_passenger" speed="8.33" pos="35.24" lane="-39117800#0_0" slope="0.00"/>
        <vehicle id="veh2" x="70.04" y="895.07" angle="99.08" type="veh_passenger" speed="8.49" pos="39.69" lane="29333273#0_0" slope="0.00"/>
    </timestep>
    <timestep time="43.00">
        <vehicle id="veh0" x="348.20" y="279.72" angle="57.87" type="veh_passenger" speed="7.76" pos="25.52" lane="360319693_0" slope="0.00"/>
        <vehicle id="veh1" x="941.30" y="1251.93" angle="195.40" type="veh_passenger" speed="8.54" pos="43.78" lane="-39117800#0_0" slope="0.00"/>
        <vehicle id="veh2" x="79.40" y="893.57" angle="99.08" type="veh_passenger" speed="9.48" pos="49.17" lane="29333273#0_0" slope="0.00"/>
    </timestep>
    <timestep time="44.00">
        <vehicle id="veh0" x="354.87" y="283.91" angle="57.87" type="veh_passenger" speed="7.86" pos="33.38" lane="360319693_0" slope="0.00"/>
        <vehicle id="veh1" x="939.04" y="1243.71" angle="195.40" type="veh_passenger" speed="8.53" pos="52.31" lane="-39117800#0_0" slope="0.00"/>
        <vehicle id="veh2" x="88.81" y="892.07" angle="99.08" type="veh_passenger" speed="9.53" pos="58.70" lane="29333273#0_0" slope="0.00"/>
    </timestep>
    <timestep time="45.00">
        <vehicle id="veh0" x="360.76" y="287.60" angle="57.87" type="veh_passenger" speed="6.93" pos="40.31" lane="360319693_0" slope="0.00"/>
        <vehicle id="veh1" x="936.92" y="1236.01" angle="195.40" type="veh_passenger" speed="7.98" pos="60.29" lane="-39117800#0_0" slope="0.00"/>
        <vehicle id="veh2" x="97.40" y="890.69" angle="99.08" type="veh_passenger" speed="8.70" pos="67.40" lane="29333273#0_0" slope="0.00"/>
    </timestep>
    <timestep time="46.00">
        <vehicle id="veh0" x="366.77" y="291.38" angle="57.87" type="veh_passenger" speed="7.08" pos="47.40" lane="360319693_0" slope="0.00"/>
        <vehicle id="veh1" x="934.73" y="1228.05" angle="195.40" type="veh_passenger" speed="8.26" pos="68.55" lane="-39117800#0_0" slope="0.00"/>
        <vehicle id="veh2" x="106.05" y="889.53" angle="97.06" type="veh_passenger" speed="8.73" pos="76.13" lane="29333273#0_0" slope="0.00"/>
        <vehicle id="veh3" x="766.59" y="46.73" angle="344.04" type="veh_passenger" speed="7.34" pos="5.10" lane="677070806_1" slope="0.00"/>
    </timestep>
    <timestep time="47.00">
        <vehicle id="veh0" x="373.07" y="295.34" angle="57.87" type="veh_passenger" speed="7.43" pos="54.83" lane="360319693_0" slope="0.00"/>
        <vehicle id="veh1" x="932.55" y="1220.17" angle="195.40" type="veh_passenger" speed="8.18" pos="76.73" lane="-39117800#0_0" slope="0.00"/>
        <vehicle id="veh2" x="115.36" y="888.38" angle="97.06" type="veh_passenger" speed="9.38" pos="85.51" lane="29333273#0_0" slope="0.00"/>
        <vehicle id="veh3" x="764.85" y="52.62" angle="343.50" type="veh_passenger" speed="6.13" pos="11.23" lane="677070806_1" slope="0.00"/>
    </timestep>
    <timestep time="48.00">
        <vehicle id="veh0" x="379.58" y="299.42" angle="57.87" type="veh_passenger" speed="7.66" pos="62.49" lane="360319693_0" slope="0.00"/>
        <vehicle id="veh1" x="930.88" y="1214.09" angle="195.40" type="veh_passenger" speed="6.31" pos="83.04" lane="-39117800#0_0" slope="0.00"/>
        <vehicle id="veh2" x="123.96" y="887.31" angle="97.06" type="veh_passenger" speed="8.66" pos="94.17" lane="29333273#0_0" slope="0.00"/>
        <vehicle id="veh3" x="763.01" y="58.84" angle="343.54" type="veh_passenger" speed="6.49" pos="17.72" lane="677070806_1" slope="0.00"/>
    </timestep>
    <timestep time="49.00">
        <vehicle id="veh0" x="385.89" y="303.38" angle="57.89" type="veh_passenger" speed="7.43" pos="69.92" lane="360319693_0" slope="0.00"/>
        <vehicle id="veh1" x="927.42" y="1210.34" angle="224.87" type="veh_passenger" speed="5.46" pos="5.23" lane=":467744896_0_0" slope="0.00"/>
        <vehicle id="veh2" x="132.70" y="886.20" angle="97.29" type="veh_passenger" speed="8.81" pos="102.99" lane="29333273#0_0" slope="0.00"/>
        <vehicle id="veh3" x="761.26" y="64.80" angle="343.63" type="veh_passenger" speed="6.21" pos="23.93" lane="677070806_1" slope="0.00"/>
    </timestep>
    <timestep time="50.00">
        <vehicle id="veh0" x="392.26" y="307.38" angle="57.89" type="veh_passenger" speed="7.51" pos="77.43" lane="360319693_0" slope="0.00"/>
        <vehicle id="veh1" x="921.56" y="1211.58" angle="284.86" type="veh_passenger" speed="6.06" pos="3.34" lane="-1450939556#1_0" slope="0.00"/>
        <vehicle id="veh2" x="141.76" y="885.04" angle="97.29" type="veh_passenger" speed="9.13" pos="112.12" lane="29333273#0_0" slope="0.00"/>
        <vehicle id="veh3" x="759.22" y="71.74" angle="343.63" type="veh_passenger" speed="7.23" pos="31.16" lane="677070806_1" slope="0.00"/>
    </timestep>
    <timestep time="51.00">
        <vehicle id="veh0" x="398.30" y="311.17" angle="57.89" type="veh_passenger" speed="7.11" pos="84.54" lane="360319693_0" slope="0.00"/>
        <vehicle id="veh1" x="913.33" y="1214.18" angle="287.53" type="veh_passenger" speed="8.64" pos="11.98" lane="-1450939556#1_0" slope="0.00"/>
        <vehicle id="veh2" x="150.60" y="883.91" angle="97.29" type="veh_passenger" speed="8.91" pos="121.03" lane="29333273#0_0" slope="0.00"/>
        <vehicle id="veh3" x="757.36" y="78.06" angle="343.63" type="veh_passenger" speed="6.58" pos="37.74" lane="677070806_1" slope="0.00"/>
    </timestep>
    <timestep time="52.00">
        <vehicle id="veh0" x="404.72" y="315.20" angle="57.89" type="veh_passenger" speed="7.57" pos="92.11" lane="360319693_0" slope="0.00"/>
        <vehicle id="veh1" x="903.14" y="1217.40" angle="287.53" type="veh_passenger" speed="10.68" pos="22.67" lane="-1450939556#1_0" slope="0.00"/>
        <vehicle id="veh2" x="159.25" y="882.81" angle="97.29" type="veh_passenger" speed="8.71" pos="129.75" lane="29333273#0_0" slope="0.00"/>
        <vehicle id="veh3" x="752.26" y="84.00" angle="343.39" type="veh_passenger" speed="7.18" pos="44.92" lane="677070806_0" slope="0.00"/>
    </timestep>
    <timestep time="53.00">
        <vehicle id="veh0" x="411.73" y="317.39" angle="76.35" type="veh_passenger" speed="7.39" pos="99.49" lane="360319693_0" slope="0.00"/>
        <vehicle id="veh1" x="891.58" y="1221.05" angle="287.53" type="veh_passenger" speed="12.13" pos="34.79" lane="-1450939556#1_0" slope="0.00"/>
        <vehicle id="veh2" x="168.30" y="881.65" angle="97.29" type="veh_passenger" speed="9.13" pos="138.87" lane="29333273#0_0" slope="0.00"/>
        <vehicle id="veh3" x="750.14" y="90.61" angle="342.19" type="veh_passenger" speed="6.96" pos="51.87" lane="677070806_0" slope="0.00"/>
    </timestep>
    <timestep time="54.00">
        <vehicle id="veh0" x="418.44" y="319.46" angle="72.05" type="veh_passenger" speed="7.02" pos="106.51" lane="360319693_0" slope="0.00"/>
        <vehicle id="veh1" x="877.87" y="1225.38" angle="287.57" type="veh_passenger" speed="14.38" pos="49.17" lane="-1450939556#1_0" slope="0.00"/>
        <vehicle id="veh2" x="172.90" y="881.06" angle="97.29" type="veh_passenger" speed="4.63" pos="143.50" lane="29333273#0_0" slope="0.00"/>
        <vehicle id="veh3" x="748.05" y="97.10" angle="342.19" type="veh_passenger" speed="6.82" pos="58.69" lane="677070806_0" slope="0.00"/>
    </timestep>
    <timestep time="55.00">
        <vehicle id="veh0" x="425.53" y="321.47" angle="75.24" type="veh_passenger" speed="7.37" pos="3.01" lane=":cluster_2376495630_8613842649_4_0" slope="0.00"/>
        <vehicle id="veh1" x="864.02" y="1229.73" angle="287.09" type="veh_passenger" speed="14.52" pos="3.67" lane=":479669443_0_0" slope="0.00"/>
        <vehicle id="veh2" x="178.96" y="880.23" angle="97.86" type="veh_passenger" speed="6.12" pos="3.45" lane=":265747004_9_0" slope="0.00"/>
        <vehicle id="veh3" x="746.13" y="103.08" angle="342.19" type="veh_passenger" speed="6.29" pos="64.98" lane="677070806_0" slope="0.00"/>
    </timestep>
    <timestep time="56.00">
        <vehicle id="veh0" x="432.34" y="322.38" angle="83.35" type="veh_passenger" speed="6.88" pos="9.89" lane=":cluster_2376495630_8613842649_4_0" slope="0.00"/>
        <vehicle id="veh1" x="850.21" y="1233.88" angle="286.43" type="veh_passenger" speed="14.42" pos="3.80" lane="-1450939555_0" slope="0.00"/>
        <vehicle id="veh2" x="186.64" y="879.14" angle="98.11" type="veh_passenger" speed="7.76" pos="11.22" lane=":265747004_9_0" slope="0.00"/>
        <vehicle id="veh3" x="744.12" y="109.33" angle="342.19" type="veh_passenger" speed="6.57" pos="71.54" lane="677070806_0" slope="0.00"/>
    </timestep>
    <timestep time="57.00">
        <vehicle id="veh0" x="438.70" y="326.35" angle="54.08" type="veh_passenger" speed="7.56" pos="3.85" lane="-4395994#5_0" slope="0.00"/>
        <vehicle id="veh1" x="836.02" y="1237.87" angle="284.62" type="veh_passenger" speed="14.74" pos="3.51" lane=":2522177394_1_0" slope="0.00"/>
        <vehicle id="veh2" x="195.69" y="877.27" angle="103.76" type="veh_passenger" speed="9.26" pos="5.73" lane="-24450825#2_0" slope="0.00"/>
        <vehicle id="veh3" x="742.02" y="115.89" angle="342.24" type="veh_passenger" speed="6.89" pos="1.40" lane=":1396449287_1_0" slope="0.00"/>
    </timestep>
    <timestep time="58.00">
        <vehicle id="veh0" x="444.32" y="330.78" angle="51.82" type="veh_passenger" speed="7.16" pos="11.01" lane="-4395994#5_0" slope="0.00"/>
        <vehicle id="veh1" x="822.74" y="1241.17" angle="283.94" type="veh_passenger" speed="13.69" pos="8.80" lane="-40260270_0" slope="0.00"/>
        <vehicle id="veh2" x="204.95" y="874.81" angle="106.44" type="veh_passenger" speed="9.58" pos="15.32" lane="-24450825#2_0" slope="0.00"/>
        <vehicle id="veh3" x="740.15" y="121.85" angle="342.60" type="veh_passenger" speed="6.24" pos="7.64" lane=":1396449287_1_0" slope="0.00"/>
    </timestep>
    <timestep time="59.00">
        <vehicle id="veh0" x="449.81" y="335.09" angle="51.82" type="veh_passenger" speed="6.97" pos="17.98" lane="-4395994#5_0" slope="0.00"/>
        <vehicle id="veh1" x="812.81" y="1243.64" angle="283.94" type="veh_passenger" speed="10.22" pos="19.03" lane="-40260270_0" slope="0.00"/>
        <vehicle id="veh2" x="213.57" y="872.24" angle="106.56" type="veh_passenger" speed="8.99" pos="24.31" lane="-24450825#2_0" slope="0.00"/>
        <vehicle id="veh3" x="738.22" y="128.02" angle="342.60" type="veh_passenger" speed="6.46" pos="14.10" lane=":1396449287_1_0" slope="0.00"/>
    </timestep>
    <timestep time="60.00">
        <vehicle id="veh0" x="455.89" y="339.99" angle="50.78" type="veh_passenger" speed="7.81" pos="25.80" lane="-4395994#5_0" slope="0.00"/>
        <vehicle id="veh1" x="806.32" y="1245.25" angle="283.94" type="veh_passenger" speed="6.69" pos="25.71" lane="-40260270_0" slope="0.00"/>
        <vehicle id="veh2" x="221.83" y="869.79" angle="106.56" type="veh_passenger" speed="8.61" pos="32.92" lane="-24450825#2_0" slope="0.00"/>
        <vehicle id="veh3" x="736.28" y="134.34" angle="342.95" type="veh_passenger" speed="6.61" pos="6.35" lane="1322636049#1_0" slope="0.00"/>
    </timestep>
    <timestep time="61.00">
        <vehicle id="veh0" x="461.22" y="344.39" angle="50.42" type="veh_passenger" speed="6.92" pos="32.71" lane="-4395994#5_0" slope="0.00"/>
        <vehicle id="veh1" x="803.58" y="1245.93" angle="283.92" type="veh_passenger" speed="2.82" pos="28.54" lane="-40260270_0" slope="0.00"/>
        <vehicle id="veh2" x="230.91" y="867.09" angle="106.56" type="veh_passenger" speed="9.48" pos="42.40" lane="-24450825#2_0" slope="0.00"/>
        <vehicle id="veh3" x="734.32" y="140.74" angle="342.96" type="veh_passenger" speed="6.69" pos="13.04" lane="1322636049#1_0" slope="0.00"/>
    </timestep>
    <timestep time="62.00">
        <vehicle id="veh0" x="466.42" y="348.69" angle="50.42" type="veh_passenger" speed="6.74" pos="39.46" lane="-4395994#5_0" slope="0.00"/>
        <vehicle id="veh1" x="803.50" y="1245.95" angle="283.92" type="veh_passenger" speed="0.08" pos="28.62" lane="-40260270_0" slope="0.00"/>
        <vehicle id="veh2" x="239.02" y="863.91" angle="111.47" type="veh_passenger" speed="8.71" pos="51.11" lane="-24450825#2_0" slope="0.00"/>
        <vehicle id="veh3" x="732.32" y="147.26" angle="342.96" type="veh_passenger" speed="6.82" pos="19.86" lane="1322636049#1_0" slope="0.00"/>
        <vehicle id="veh4" x="207.01" y="804.60" angle="286.38" type="veh_passenger" speed="7.76" pos="5.10" lane="-41592120#2_0" slope="0.00"/>
    </timestep>
    <timestep time="63.00">
        <vehicle id="veh0" x="472.18" y="353.45" angle="50.42" type="veh_passenger" speed="7.47" pos="46.93" lane="-4395994#5_0" slope="0.00"/>
        <vehicle id="veh1" x="803.47" y="1245.95" angle="283.92" type="veh_passenger" speed="0.03" pos="28.65" lane="-40260270_0" slope="0.00"/>
        <vehicle id="veh2" x="247.42" y="860.61" angle="111.47" type="veh_passenger" speed="9.03" pos="60.13" lane="-24450825#2_0" slope="0.00"/>
        <vehicle id="veh3" x="730.34" y="153.69" angle="342.96" type="veh_passenger" speed="6.73" pos="26.59" lane="1322636049#1_0" slope="0.00"/>
        <vehicle id="veh4" x="200.74" y="806.43" angle="286.24" type="veh_passenger" speed="6.53" pos="11.63" lane="-41592120#2_0" slope="0.00"/>
    </timestep>
    <timestep time="64.00">
        <vehicle id="veh0" x="477.34" y="357.72" angle="50.42" type="veh_passenger" speed="6.69" pos="53.62" lane="-4395994#5_0" slope="0.00"/>
        <vehicle id="veh1" x="803.45" y="1245.96" angle="283.92" type="veh_passenger" speed="0.02" pos="28.67" lane="-40260270_0" slope="0.00"/>
        <vehicle id="veh2" x="255.47" y="857.44" angle="111.47" type="veh_passenger" speed="8.66" pos="68.79" lane="-24450825#2_0" slope="0.00"/>
        <vehicle id="veh3" x="728.37" y="160.14" angle="342.96" type="veh_passenger" speed="6.74" pos="33.33" lane="1322636049#1_0" slope="0.00"/>
        <vehicle id="veh4" x="194.09" y="808.35" angle="286.10" type="veh_passenger" speed="6.92" pos="18.55" lane="-41592120#2_0" slope="0.00"/>
    </timestep>
    <timestep time="65.00">
        <vehicle id="veh0" x="483.07" y="362.45" angle="50.42" type="veh_passenger" speed="7.44" pos="61.06" lane="-4395994#5_0" slope="0.00"/>
        <vehicle id="veh1" x="803.44" y="1245.96" angle="283.92" type="veh_passenger" speed="0.00" pos="28.68" lane="-40260270_0" slope="0.00"/>
        <vehicle id="veh2" x="263.45" y="854.30" angle="111.47" type="veh_passenger" speed="8.58" pos="77.37" lane="-24450825#2_0" slope="0.00"/>
        <vehicle id="veh3" x="726.41" y="166.54" angle="342.96" type="veh_passenger" speed="6.69" pos="40.02" lane="1322636049#1_0" slope="0.00"/>
        <vehicle id="veh4" x="187.26" y="810.09" angle="283.99" type="veh_passenger" speed="7.04" pos="25.60" lane="-41592120#2_0" slope="0.00"/>
    </timestep>
    <timestep time="66.00">